    5206
 i =     4621, time =     2310.500, E =    -34790.4086006099
  X         0.1239659708        1.1165439086        1.0168049594  MOL0
  X         1.5373687216        1.0731847694        1.0168049594  MOL0
  X         2.2886399643        2.3138815268        1.0168049594  MOL0
  X         3.6964188157        2.3470516412        1.0168049594  MOL0
  X         0.1891054147        3.5575570332        1.0168049594  MOL0
  X         1.6040401811        3.5375231856        1.0168049594  MOL0
  X         2.2511641928        4.7738147145        1.0168049594  MOL0
  X         3.7158227994        4.7683228818        1.0168049594  MOL0
  X         0.1466402194        6.0148244675        1.0168049594  MOL0
  X         1.5847919914        5.9894004656        1.0168049594  MOL0
  X         2.2484857509        7.2577726923        1.0168049594  MOL0
  X         3.6463569124        7.2543268685        1.0168049594  MOL0
  X         0.0994224494        8.4860171743        1.0168049594  MOL0
  X         1.5263299981        8.4674836815        1.0168049594  MOL0
  X         2.2495976206        9.7011509024        1.0168049594  MOL0
  X         3.6626003488        9.7417036607        1.0168049594  MOL0
  X         0.1524865450       10.9904350981        1.0168049594  MOL0
  X         1.5523777430       10.9656713731        1.0168049594  MOL0
  X         2.2272839135       12.2206674826        1.0168049594  MOL0
  X         3.6756531262       12.2331902765        1.0168049594  MOL0
  X         0.1053067072       13.4792092822        1.0168049594  MOL0
  X         1.5340448443       13.4375840527        1.0168049594  MOL0
  X         2.2274227648       14.6627232319        1.0168049594  MOL0
  X         3.6508258544       14.6462220792        1.0168049594  MOL0
  X         0.0774367168       15.8989725094        1.0168049594  MOL0
  X         1.4977004788       15.8702191255        1.0168049594  MOL0
  X         2.1651606955       17.0833658570        1.0168049594  MOL0
  X         3.6310674937       17.1056920300        1.0168049594  MOL0
  X         0.0808628690       18.3587695858        1.0168049594  MOL0
  X         1.5033556807       18.3191398881        1.0168049594  MOL0
  X         2.2618801570       19.5688791592        1.0168049594  MOL0
  X         3.6731375561       19.5275910098        1.0168049594  MOL0
  X         0.1064189665       20.7594030949        1.0168049594  MOL0
  X         1.5575846599       20.7783029362        1.0168049594  MOL0
  X         2.2407068305       22.0078460796        1.0168049594  MOL0
  X         3.6782890681       22.0181485296        1.0168049594  MOL0
  X         0.1041093804       23.2295786628        1.0168049594  MOL0
  X         1.5396674884       23.2391018414        1.0168049594  MOL0
  X         2.2085210747       24.4936394107        1.0168049594  MOL0
  X         3.6747196629       24.4946009741        1.0168049594  MOL0
  X         0.0717723513       25.6980785193        1.0168049594  MOL0
  X         1.5114277396       25.7209234371        1.0168049594  MOL0
  X         2.2370824886       26.9667117758        1.0168049594  MOL0
  X         3.6758026060       26.9344660549        1.0168049594  MOL0
  X         0.1106547115       28.1686134170        1.0168049594  MOL0
  X         1.5378287121       28.2018340950        1.0168049594  MOL0
  X         2.2417674946       29.3919309293        1.0168049594  MOL0
  X         3.6619987592       29.4016915645        1.0168049594  MOL0
  X         0.0744159134       30.6348029692        1.0168049594  MOL0
  X         1.5099355104       30.6165393227        1.0168049594  MOL0
  X         2.2427625091       31.8458449409        1.0168049594  MOL0
  X         3.6413252769       31.8565502638        1.0168049594  MOL0
  X         0.0883814850       33.1004345258        1.0168049594  MOL0
  X         1.5293999033       33.0705710886        1.0168049594  MOL0
  X         2.2233572921       34.3008435830        1.0168049594  MOL0
  X         3.6457536860       34.3405605125        1.0168049594  MOL0
  X         4.3646370322        1.1277204198        1.0168049594  MOL0
  X         5.8182503676        1.1122328887        1.0168049594  MOL0
  X         6.5217392690        2.3419286872        1.0168049594  MOL0
  X         7.9611122016        2.3731417533        1.0168049594  MOL0
  X         4.3870156750        3.5501833275        1.0168049594  MOL0
  X         5.8061301768        3.5643982049        1.0168049594  MOL0
  X         6.5153700629        4.8022512357        1.0168049594  MOL0
  X         7.9271882161        4.8131727526        1.0168049594  MOL0
  X         4.4189286678        6.0304919301        1.0168049594  MOL0
  X         5.7943343815        6.0695219819        1.0168049594  MOL0
  X         6.5022548435        7.2998966106        1.0168049594  MOL0
  X         7.9446192287        7.2940131062        1.0168049594  MOL0
  X         4.3956073274        8.4993795253        1.0168049594  MOL0
  X         5.7938879404        8.5026393220        1.0168049594  MOL0
  X         6.4902541249        9.7576532318        1.0168049594  MOL0
  X         7.8857125319        9.7514444458        1.0168049594  MOL0
  X         4.4011333982       10.9792891483        1.0168049594  MOL0
  X         5.7738636544       10.9838333835        1.0168049594  MOL0
  X         6.5073434041       12.2095979434        1.0168049594  MOL0
  X         7.9148462518       12.2280726883        1.0168049594  MOL0
  X         4.3795019713       13.4419305387        1.0168049594  MOL0
  X         5.8125146549       13.4172505893        1.0168049594  MOL0
  X         6.4815596710       14.6715421869        1.0168049594  MOL0
  X         7.9146427503       14.6817043625        1.0168049594  MOL0
  X         4.3500499324       15.8707513689        1.0168049594  MOL0
  X         5.7665141219       15.8863317454        1.0168049594  MOL0
  X         6.4850695621       17.0736735755        1.0168049594  MOL0
  X         7.9274538077       17.0990267168        1.0168049594  MOL0
  X         4.3859700209       18.2883121300        1.0168049594  MOL0
  X         5.8224436038       18.3139044758        1.0168049594  MOL0
  X         6.5491494203       19.5594264983        1.0168049594  MOL0
  X         7.9677591486       19.5632285169        1.0168049594  MOL0
  X         4.3914093418       20.7650951057        1.0168049594  MOL0
  X         5.8201041669       20.7670066366        1.0168049594  MOL0
  X         6.5344598553       22.0146878871        1.0168049594  MOL0
  X         7.9423858427       22.0334726001        1.0168049594  MOL0
  X         4.3798946694       23.2674984883        1.0168049594  MOL0
  X         5.8078597635       23.2707657024        1.0168049594  MOL0
  X         6.5495023064       24.5018962006        1.0168049594  MOL0
  X         7.9703658958       24.4842641649        1.0168049594  MOL0
  X         4.3803467885       25.7160389169        1.0168049594  MOL0
  X         5.8310730113       25.7271701808        1.0168049594  MOL0
  X         6.5324182121       26.9746494186        1.0168049594  MOL0
  X         7.9411859214       26.9771850450        1.0168049594  MOL0
  X         4.3998871833       28.1637446410        1.0168049594  MOL0
  X         5.7950987444       28.1841533630        1.0168049594  MOL0
  X         6.4920482816       29.4021795005        1.0168049594  MOL0
  X         7.9289085417       29.4268797171        1.0168049594  MOL0
  X         4.3567703097       30.6346798241        1.0168049594  MOL0
  X         5.7540649843       30.6398243597        1.0168049594  MOL0
  X         6.5119594910       31.8536946947        1.0168049594  MOL0
  X         7.9511342016       31.8624354353        1.0168049594  MOL0
  X         4.3208936877       33.0727629867        1.0168049594  MOL0
  X         5.7166892743       33.0871305729        1.0168049594  MOL0
  X         6.4821764353       34.3187283952        1.0168049594  MOL0
  X         7.9482608313       34.2993369848        1.0168049594  MOL0
  X         8.6693319538        1.1324533972        1.0168049594  MOL0
  X        10.0533334684        1.1315055791        1.0168049594  MOL0
  X        10.7961118082        2.3493958405        1.0168049594  MOL0
  X        12.2338235169        2.3362258101        1.0168049594  MOL0
  X         8.6674832100        3.5841669091        1.0168049594  MOL0
  X        10.1184470561        3.5986222744        1.0168049594  MOL0
  X        10.7515618786        4.8296692605        1.0168049594  MOL0
  X        12.1924767924        4.8099000193        1.0168049594  MOL0
  X         8.6333803509        6.0545520856        1.0168049594  MOL0
  X        10.0387829263        6.0204062413        1.0168049594  MOL0
  X        10.7428540991        7.2478481243        1.0168049594  MOL0
  X        12.1896986061        7.2665264278        1.0168049594  MOL0
  X         8.6299852153        8.5105339333        1.0168049594  MOL0
  X        10.0380724976        8.4886136083        1.0168049594  MOL0
  X        10.7362782116        9.7408278147        1.0168049594  MOL0
  X        12.1587399620        9.7384337514        1.0168049594  MOL0
  X         8.6039313853       10.9660958324        1.0168049594  MOL0
  X        10.0019822683       10.9609263626        1.0168049594  MOL0
  X        10.7203124998       12.1938261706        1.0168049594  MOL0
  X        12.1495121230       12.1771876243        1.0168049594  MOL0
  X         8.6248442087       13.4469258169        1.0168049594  MOL0
  X        10.0194118028       13.4479853782        1.0168049594  MOL0
  X        10.7439867623       14.6687147660        1.0168049594  MOL0
  X        12.1765025234       14.6465293548        1.0168049594  MOL0
  X         8.6138624638       15.8788721620        1.0168049594  MOL0
  X        10.0428982134       15.9035706505        1.0168049594  MOL0
  X        10.7639805760       17.1148551132        1.0168049594  MOL0
  X        12.2004603078       17.0886815690        1.0168049594  MOL0
  X         8.6377713920       18.2907772887        1.0168049594  MOL0
  X        10.0654244096       18.3021318841        1.0168049594  MOL0
  X        10.7468558524       19.5477955790        1.0168049594  MOL0
  X        12.1691155059       19.5773384031        1.0168049594  MOL0
  X         8.6640088078       20.8060355919        1.0168049594  MOL0
  X        10.0807335902       20.7930695728        1.0168049594  MOL0
  X        10.8086383391       22.0062500823        1.0168049594  MOL0
  X        12.2327036624       22.0100855061        1.0168049594  MOL0
  X         8.6822156156       23.2508468227        1.0168049594  MOL0
  X        10.1015236297       23.2532871820        1.0168049594  MOL0
  X        10.8055973115       24.5332939046        1.0168049594  MOL0
  X        12.2500887032       24.4694541296        1.0168049594  MOL0
  X         8.6652314644       25.7257139228        1.0168049594  MOL0
  X        10.0745906232       25.7470388099        1.0168049594  MOL0
  X        10.8038259125       26.9475071929        1.0168049594  MOL0
  X        12.2550211707       26.9408489079        1.0168049594  MOL0
  X         8.6512799046       28.2144086871        1.0168049594  MOL0
  X        10.1183575853       28.1669486978        1.0168049594  MOL0
  X        10.7608336877       29.4143049426        1.0168049594  MOL0
  X        12.2242870154       29.4281495945        1.0168049594  MOL0
  X         8.6546113825       30.6603978156        1.0168049594  MOL0
  X        10.0608530780       30.6519862611        1.0168049594  MOL0
  X        10.7780229548       31.8576644619        1.0168049594  MOL0
  X        12.2146930152       31.9006831390        1.0168049594  MOL0
  X         8.6639992189       33.1142859458        1.0168049594  MOL0
  X        10.0766033375       33.1091644887        1.0168049594  MOL0
  X        10.7816520002       34.3261786558        1.0168049594  MOL0
  X        12.2039714151       34.3076902298        1.0168049594  MOL0
  X        12.9323249508        1.1157177575        1.0168049594  MOL0
  X        14.3515770565        1.1567957318        1.0168049594  MOL0
  X        15.0526309696        2.3837367280        1.0168049594  MOL0
  X        16.4676479905        2.3525592892        1.0168049594  MOL0
  X        12.9006962026        3.5847411007        1.0168049594  MOL0
  X        14.3445366990        3.5919780544        1.0168049594  MOL0
  X        15.0754490610        4.7928691792        1.0168049594  MOL0
  X        16.4739103277        4.7923742570        1.0168049594  MOL0
  X        12.9017155923        5.9906761399        1.0168049594  MOL0
  X        14.3672035024        6.0293425813        1.0168049594  MOL0
  X        15.0394395887        7.2611423401        1.0168049594  MOL0
  X        16.4803540725        7.2581283071        1.0168049594  MOL0
  X        12.8476541876        8.5106940418        1.0168049594  MOL0
  X        14.2830064701        8.4830098857        1.0168049594  MOL0
  X        15.0082937011        9.7250977378        1.0168049594  MOL0
  X        16.4261382445        9.7290992400        1.0168049594  MOL0
  X        12.9034618806       10.9697344018        1.0168049594  MOL0
  X        14.3207337665       10.9486972331        1.0168049594  MOL0
  X        15.0146398410       12.1860711364        1.0168049594  MOL0
  X        16.4116187643       12.1616380158        1.0168049594  MOL0
  X        12.8557013455       13.4137504394        1.0168049594  MOL0
  X        14.2586334543       13.4165892979        1.0168049594  MOL0
  X        15.0095996866       14.6513682356        1.0168049594  MOL0
  X        16.4335918167       14.6459618030        1.0168049594  MOL0
  X        12.8871551335       15.8574934655        1.0168049594  MOL0
  X        14.3170187616       15.8590344456        1.0168049594  MOL0
  X        15.0433126242       17.0708506559        1.0168049594  MOL0
  X        16.4732822723       17.0837563839        1.0168049594  MOL0
  X        12.8765943532       18.3472418343        1.0168049594  MOL0
  X        14.3310276882       18.3120899526        1.0168049594  MOL0
  X        15.0340471413       19.5337793017        1.0168049594  MOL0
  X        16.4797913394       19.5614912595        1.0168049594  MOL0
  X        12.9337654799       20.7785182684        1.0168049594  MOL0
  X        14.3403392307       20.7835960053        1.0168049594  MOL0
  X        15.0719997273       22.0388138109        1.0168049594  MOL0
  X        16.5014437516       22.0057598015        1.0168049594  MOL0
  X        12.9563029161       23.2260511258        1.0168049594  MOL0
  X        14.3745632675       23.2768337819        1.0168049594  MOL0
  X        15.0581637826       24.5093047790        1.0168049594  MOL0
  X        16.4945475599       24.4987202094        1.0168049594  MOL0
  X        12.9600155513       25.7114209835        1.0168049594  MOL0
  X        14.3973096775       25.7406227563        1.0168049594  MOL0
  X        15.0711661081       26.9517803114        1.0168049594  MOL0
  X        16.4862872908       26.9726831518        1.0168049594  MOL0
  X        12.9483272423       28.1939976746        1.0168049594  MOL0
  X        14.3372664089       28.1791430841        1.0168049594  MOL0
  X        15.0537671599       29.3871357354        1.0168049594  MOL0
  X        16.4892727158       29.3897163416        1.0168049594  MOL0
  X        12.9298015324       30.6389020931        1.0168049594  MOL0
  X        14.3570763536       30.6198911653        1.0168049594  MOL0
  X        15.0574183122       31.8577806940        1.0168049594  MOL0
  X        16.4601347159       31.8586943936        1.0168049594  MOL0
  X        12.9258939232       33.0993899305        1.0168049594  MOL0
  X        14.3548300993       33.0960701414        1.0168049594  MOL0
  X        15.0723758193       34.3424614691        1.0168049594  MOL0
  X        16.4784752418       34.3581201294        1.0168049594  MOL0
  X        17.1843926854        1.1479170080        1.0168049594  MOL0
  X        18.6352770177        1.1735243276        1.0168049594  MOL0
  X        19.3326012163        2.3775878270        1.0168049594  MOL0
  X        20.7317808379        2.4296903136        1.0168049594  MOL0
  X        17.1905304963        3.5750976216        1.0168049594  MOL0
  X        18.5934198743        3.6001834670        1.0168049594  MOL0
  X        19.3260016597        4.8266959553        1.0168049594  MOL0
  X        20.7136246612        4.8538798199        1.0168049594  MOL0
  X        17.1802865026        6.0251794296        1.0168049594  MOL0
  X        18.6133413098        6.0386361021        1.0168049594  MOL0
  X        19.3205441614        7.2661337733        1.0168049594  MOL0
  X        20.7163668690        7.2717839333        1.0168049594  MOL0
  X        17.1540054910        8.5169305101        1.0168049594  MOL0
  X        18.5904660162        8.4996525946        1.0168049594  MOL0
  X        19.2594018714        9.7177425354        1.0168049594  MOL0
  X        20.7000176015        9.6970503153        1.0168049594  MOL0
  X        17.1410405201       10.9625779865        1.0168049594  MOL0
  X        18.5575193609       10.9609033123        1.0168049594  MOL0
  X        19.2709492830       12.1755848552        1.0168049594  MOL0
  X        20.6943184084       12.2161405626        1.0168049594  MOL0
  X        17.1161133900       13.4110004365        1.0168049594  MOL0
  X        18.5228123916       13.3950027166        1.0168049594  MOL0
  X        19.2572030931       14.6206757451        1.0168049594  MOL0
  X        20.6554879773       14.6703487403        1.0168049594  MOL0
  X        17.1445514856       15.8708701343        1.0168049594  MOL0
  X        18.5635874267       15.8696179255        1.0168049594  MOL0
  X        19.2796628623       17.0895972348        1.0168049594  MOL0
  X        20.7020679076       17.1014776824        1.0168049594  MOL0
  X        17.1758534251       18.3150826243        1.0168049594  MOL0
  X        18.5765633731       18.3526852558        1.0168049594  MOL0
  X        19.3268878592       19.5559516631        1.0168049594  MOL0
  X        20.7375583577       19.5413758827        1.0168049594  MOL0
  X        17.1905767654       20.7630379330        1.0168049594  MOL0
  X        18.6016013236       20.8034301830        1.0168049594  MOL0
  X        19.2906272896       22.0106567210        1.0168049594  MOL0
  X        20.7260036892       22.0171144147        1.0168049594  MOL0
  X        17.1966148236       23.2297823326        1.0168049594  MOL0
  X        18.6294300633       23.2642685388        1.0168049594  MOL0
  X        19.3383881858       24.4607066036        1.0168049594  MOL0
  X        20.7444049703       24.4888438485        1.0168049594  MOL0
  X        17.1982366774       25.7313992226        1.0168049594  MOL0
  X        18.6130671303       25.7099021244        1.0168049594  MOL0
  X        19.3394325312       26.9547710475        1.0168049594  MOL0
  X        20.7501576395       26.9434880421        1.0168049594  MOL0
  X        17.2132134179       28.2080173654        1.0168049594  MOL0
  X        18.6286421500       28.1885114939        1.0168049594  MOL0
  X        19.3226149945       29.4373192269        1.0168049594  MOL0
  X        20.7505409085       29.4185745758        1.0168049594  MOL0
  X        17.1863154132       30.6409462741        1.0168049594  MOL0
  X        18.6116789878       30.6429030839        1.0168049594  MOL0
  X        19.3083998285       31.8663020353        1.0168049594  MOL0
  X        20.7208794749       31.8816816151        1.0168049594  MOL0
  X        17.1653712066       33.1283702089        1.0168049594  MOL0
  X        18.5743603506       33.0997757516        1.0168049594  MOL0
  X        19.3335096500       34.3681055863        1.0168049594  MOL0
  X        20.7026554815       34.3654461558        1.0168049594  MOL0
  X        21.4339876010        1.1919339012        1.0168049594  MOL0
  X        22.8834490873        1.1367622057        1.0168049594  MOL0
  X        23.6170158974        2.3842411012        1.0168049594  MOL0
  X        25.0083380899        2.3530760507        1.0168049594  MOL0
  X        21.4755797924        3.6547093023        1.0168049594  MOL0
  X        22.8960495669        3.6332205894        1.0168049594  MOL0
  X        23.5761453837        4.8508621062        1.0168049594  MOL0
  X        24.9772293132        4.8393649709        1.0168049594  MOL0
  X        21.4344922865        6.0372023724        1.0168049594  MOL0
  X        22.8398960810        6.0692560032        1.0168049594  MOL0
  X        23.5357210260        7.2674392813        1.0168049594  MOL0
  X        24.9595424724        7.3033513766        1.0168049594  MOL0
  X        21.4304539626        8.4908814928        1.0168049594  MOL0
  X        22.8668599571        8.5181236291        1.0168049594  MOL0
  X        23.5515264680        9.7495653968        1.0168049594  MOL0
  X        24.9646798838        9.7420875232        1.0168049594  MOL0
  X        21.3921256714       10.9427580533        1.0168049594  MOL0
  X        22.8080060948       10.9601288462        1.0168049594  MOL0
  X        23.5156373432       12.1631194375        1.0168049594  MOL0
  X        24.9292439744       12.1475394381        1.0168049594  MOL0
  X        21.3975603062       13.4203856595        1.0168049594  MOL0
  X        22.8244079742       13.3849111725        1.0168049594  MOL0
  X        23.5100096269       14.6011488158        1.0168049594  MOL0
  X        24.9104358887       14.6178600042        1.0168049594  MOL0
  X        21.4117108773       15.8779732987        1.0168049594  MOL0
  X        22.8188357007       15.8388609336        1.0168049594  MOL0
  X        23.5278511768       17.0933030528        1.0168049594  MOL0
  X        24.9616635676       17.0776923600        1.0168049594  MOL0
  X        21.4211091952       18.3328061174        1.0168049594  MOL0
  X        22.8638274450       18.3296853928        1.0168049594  MOL0
  X        23.6061909619       19.5703543062        1.0168049594  MOL0
  X        24.9831927050       19.5634280155        1.0168049594  MOL0
  X        21.4679263069       20.7891148492        1.0168049594  MOL0
  X        22.8804464893       20.7954305696        1.0168049594  MOL0
  X        23.5719997863       22.0065894027        1.0168049594  MOL0
  X        24.9647225728       22.0148886529        1.0168049594  MOL0
  X        21.4388902763       23.2378777954        1.0168049594  MOL0
  X        22.8606932026       23.2406816641        1.0168049594  MOL0
  X        23.5719978288       24.4958673710        1.0168049594  MOL0
  X        25.0320549716       24.4609095946        1.0168049594  MOL0
  X        21.4820322176       25.7150567520        1.0168049594  MOL0
  X        22.8854144570       25.7270420006        1.0168049594  MOL0
  X        23.5938862453       26.9566403969        1.0168049594  MOL0
  X        25.0181296139       26.9171761998        1.0168049594  MOL0
  X        21.4346611934       28.1739298626        1.0168049594  MOL0
  X        22.9035687230       28.1549146169        1.0168049594  MOL0
  X        23.5954999957       29.3837308803        1.0168049594  MOL0
  X        24.9954184912       29.3642336122        1.0168049594  MOL0
  X        21.4295358074       30.6351643328        1.0168049594  MOL0
  X        22.8401027062       30.6033579394        1.0168049594  MOL0
  X        23.5236287693       31.8597294769        1.0168049594  MOL0
  X        24.9858581057       31.8562480089        1.0168049594  MOL0
  X        21.4156640822       33.1123020736        1.0168049594  MOL0
  X        22.8414053774       33.1126996912        1.0168049594  MOL0
  X        23.5982224492       34.3261682310        1.0168049594  MOL0
  X        25.0042348286       34.3428430180        1.0168049594  MOL0
  X        25.7161262966        1.1462939745        1.0168049594  MOL0
  X        27.1508684865        1.1140517654        1.0168049594  MOL0
  X        27.8603784169        2.3752608268        1.0168049594  MOL0
  X        29.2708920866        2.3587306246        1.0168049594  MOL0
  X        25.7217676910        3.6128440105        1.0168049594  MOL0
  X        27.1457210634        3.6003120357        1.0168049594  MOL0
  X        27.8408033089        4.8562756923        1.0168049594  MOL0
  X        29.2428210483        4.7935515383        1.0168049594  MOL0
  X        25.6888326778        6.0467691676        1.0168049594  MOL0
  X        27.1099802830        6.0639130000        1.0168049594  MOL0
  X        27.8169358613        7.2793464012        1.0168049594  MOL0
  X        29.2129509055        7.2709023129        1.0168049594  MOL0
  X        25.6771245696        8.5248735246        1.0168049594  MOL0
  X        27.0859796305        8.4678669402        1.0168049594  MOL0
  X        27.7996546527        9.7315950363        1.0168049594  MOL0
  X        29.2073105463        9.7270883032        1.0168049594  MOL0
  X        25.6648011938       10.9472641399        1.0168049594  MOL0
  X        27.0870717204       10.9703151580        1.0168049594  MOL0
  X        27.7779120795       12.1667793324        1.0168049594  MOL0
  X        29.1753794625       12.2065848457        1.0168049594  MOL0
  X        25.6402562747       13.3863259864        1.0168049594  MOL0
  X        27.0732952147       13.4048114189        1.0168049594  MOL0
  X        27.7800964950       14.6326510922        1.0168049594  MOL0
  X        29.2074836920       14.6158205509        1.0168049594  MOL0
  X        25.6425503224       15.8440543909        1.0168049594  MOL0
  X        27.0559418817       15.8762933699        1.0168049594  MOL0
  X        27.8128083530       17.0960558994        1.0168049594  MOL0
  X        29.2140792935       17.0812751926        1.0168049594  MOL0
  X        25.6961027871       18.3120125055        1.0168049594  MOL0
  X        27.1158666102       18.3494312250        1.0168049594  MOL0
  X        27.8353057404       19.5794564489        1.0168049594  MOL0
  X        29.2235624810       19.5654499801        1.0168049594  MOL0
  X        25.6586864206       20.7714487852        1.0168049594  MOL0
  X        27.0963594501       20.7844584115        1.0168049594  MOL0
  X        27.7918163468       21.9891881279        1.0168049594  MOL0
  X        29.2218555459       21.9757460037        1.0168049594  MOL0
  X        25.6792566932       23.2515228668        1.0168049594  MOL0
  X        27.1087959152       23.2227383967        1.0168049594  MOL0
  X        27.7934591033       24.4380375657        1.0168049594  MOL0
  X        29.2075395028       24.4429428000        1.0168049594  MOL0
  X        25.7134751269       25.7184840391        1.0168049594  MOL0
  X        27.1359991676       25.6950248477        1.0168049594  MOL0
  X        27.8231083320       26.9210115083        1.0168049594  MOL0
  X        29.2386925088       26.9223633480        1.0168049594  MOL0
  X        25.6983922953       28.1432539338        1.0168049594  MOL0
  X        27.1001745366       28.1599760816        1.0168049594  MOL0
  X        27.7975129755       29.3775096544        1.0168049594  MOL0
  X        29.2304499967       29.3708220509        1.0168049594  MOL0
  X        25.6754349804       30.6269239017        1.0168049594  MOL0
  X        27.0884986845       30.6417796686        1.0168049594  MOL0
  X        27.8250039886       31.8472645970        1.0168049594  MOL0
  X        29.2289849499       31.8166084173        1.0168049594  MOL0
  X        25.7108245877       33.0857625513        1.0168049594  MOL0
  X        27.1303346687       33.0977667329        1.0168049594  MOL0
  X        27.8678953424       34.3138204929        1.0168049594  MOL0
  X        29.2818395402       34.3050683599        1.0168049594  MOL0
  X        29.9837445757        1.1333888819        1.0168049594  MOL0
  X        31.4044050006        1.1318498225        1.0168049594  MOL0
  X        32.0896873988        2.3371995341        1.0168049594  MOL0
  X        33.5266968850        2.3768161584        1.0168049594  MOL0
  X        29.9709379959        3.5816920425        1.0168049594  MOL0
  X        31.3770691880        3.5799660228        1.0168049594  MOL0
  X        32.1334057057        4.7993229981        1.0168049594  MOL0
  X        33.5553075625        4.7858775788        1.0168049594  MOL0
  X        29.9708643705        6.0313174867        1.0168049594  MOL0
  X        31.3767045998        6.0227816137        1.0168049594  MOL0
  X        32.0835784400        7.2413397808        1.0168049594  MOL0
  X        33.5137201828        7.2159849319        1.0168049594  MOL0
  X        29.9313625584        8.4806389213        1.0168049594  MOL0
  X        31.3495617229        8.4910078395        1.0168049594  MOL0
  X        32.0680934436        9.7396009191        1.0168049594  MOL0
  X        33.5075714339        9.7397275986        1.0168049594  MOL0
  X        29.9252713575       10.9649992405        1.0168049594  MOL0
  X        31.3576133824       10.9459828060        1.0168049594  MOL0
  X        32.0755845136       12.1755388417        1.0168049594  MOL0
  X        33.5172206479       12.2322715583        1.0168049594  MOL0
  X        29.9182043034       13.4050878860        1.0168049594  MOL0
  X        31.3372526868       13.4047935531        1.0168049594  MOL0
  X        32.0492934357       14.6451959036        1.0168049594  MOL0
  X        33.4446349259       14.6675133276        1.0168049594  MOL0
  X        29.9108745642       15.8573185034        1.0168049594  MOL0
  X        31.3259714247       15.8539144657        1.0168049594  MOL0
  X        32.0645410835       17.1034912559        1.0168049594  MOL0
  X        33.4827098823       17.0959789869        1.0168049594  MOL0
  X        29.9101711406       18.3244407209        1.0168049594  MOL0