    5248
 i =    13501, time =     6750.500, E =    -34672.5427368558
  X        -1.0126883874        0.8291544040        0.8496023923  MOL0
  X         0.4242173265        0.7810930571        0.8496023923  MOL0
  X         1.1322672825        2.0315202930        0.8496023923  MOL0
  X         2.5742773132        2.0076748704        0.8496023923  MOL0
  X        -1.0196397424        3.2276852220        0.8496023923  MOL0
  X         0.3864362642        3.2430553650        0.8496023923  MOL0
  X         1.0691820171        4.4749193327        0.8496023923  MOL0
  X         2.5460967994        4.4573614943        0.8496023923  MOL0
  X        -1.0527204131        5.7410669162        0.8496023923  MOL0
  X         0.3720459258        5.7209505123        0.8496023923  MOL0
  X         1.1218705717        6.9413345842        0.8496023923  MOL0
  X         2.5232342088        6.9473185371        0.8496023923  MOL0
  X        -1.0542472994        8.1931030202        0.8496023923  MOL0
  X         0.3615866258        8.1463790593        0.8496023923  MOL0
  X         1.0996118325        9.3866801426        0.8496023923  MOL0
  X         2.5327837762        9.4240224010        0.8496023923  MOL0
  X        -1.0435115070       10.6507829722        0.8496023923  MOL0
  X         0.3766779216       10.6331163211        0.8496023923  MOL0
  X         1.1011582936       11.8571318868        0.8496023923  MOL0
  X         2.4931203711       11.8657777013        0.8496023923  MOL0
  X        -1.0479608817       13.0740555869        0.8496023923  MOL0
  X         0.3529165876       13.0819050070        0.8496023923  MOL0
  X         1.0882603463       14.2906577544        0.8496023923  MOL0
  X         2.4983450020       14.2879919362        0.8496023923  MOL0
  X        -0.9827309717       15.5258229722        0.8496023923  MOL0
  X         0.4327325071       15.5382193912        0.8496023923  MOL0
  X         1.1457446303       16.7633791761        0.8496023923  MOL0
  X         2.5558526444       16.7677960936        0.8496023923  MOL0
  X        -0.9861197083       17.9645906085        0.8496023923  MOL0
  X         0.4142392740       17.9584052603        0.8496023923  MOL0
  X         1.1436321223       19.1913579635        0.8496023923  MOL0
  X         2.5324531213       19.2203577754        0.8496023923  MOL0
  X        -0.9620206835       20.4274411785        0.8496023923  MOL0
  X         0.4571051076       20.4167942144        0.8496023923  MOL0
  X         1.1192461682       21.6678280426        0.8496023923  MOL0
  X         2.5551429105       21.6784546468        0.8496023923  MOL0
  X        -0.9743344357       22.8912493892        0.8496023923  MOL0
  X         0.4669167291       22.9117059865        0.8496023923  MOL0
  X         1.1368766414       24.1528918819        0.8496023923  MOL0
  X         2.5845897600       24.1450855360        0.8496023923  MOL0
  X        -1.0011632131       25.3857423344        0.8496023923  MOL0
  X         0.4440467701       25.3582545977        0.8496023923  MOL0
  X         1.1570849867       26.6090618729        0.8496023923  MOL0
  X         2.5594217379       26.6076542432        0.8496023923  MOL0
  X        -0.9751739651       27.8303267857        0.8496023923  MOL0
  X         0.4325426257       27.8256793834        0.8496023923  MOL0
  X         1.1392902799       29.0684777733        0.8496023923  MOL0
  X         2.5570442490       29.0567850406        0.8496023923  MOL0
  X        -1.0351371419       30.3045928277        0.8496023923  MOL0
  X         0.4289068077       30.3188948633        0.8496023923  MOL0
  X         1.1193191782       31.5442566048        0.8496023923  MOL0
  X         2.5442563320       31.5545569688        0.8496023923  MOL0
  X        -1.0165880736       32.7625233813        0.8496023923  MOL0
  X         0.4074095170       32.7617675576        0.8496023923  MOL0
  X         1.1397097542       34.0095775892        0.8496023923  MOL0
  X         2.5481897331       34.0164667433        0.8496023923  MOL0
  X         3.2753021191        0.8003484616        0.8496023923  MOL0
  X         4.7024571899        0.7963008630        0.8496023923  MOL0
  X         5.4519370976        1.9942462872        0.8496023923  MOL0
  X         6.8853081413        2.0036723901        0.8496023923  MOL0
  X         3.2913441609        3.2416369557        0.8496023923  MOL0
  X         4.6927460093        3.2494707212        0.8496023923  MOL0
  X         5.3738359695        4.4881531435        0.8496023923  MOL0
  X         6.7829234071        4.5002037095        0.8496023923  MOL0
  X         3.2437645372        5.6771408001        0.8496023923  MOL0
  X         4.6715457580        5.6979560014        0.8496023923  MOL0
  X         5.3454614339        6.9408551578        0.8496023923  MOL0
  X         6.7593905486        6.9551461708        0.8496023923  MOL0
  X         3.2289641986        8.1792999916        0.8496023923  MOL0
  X         4.6750598046        8.1671638608        0.8496023923  MOL0
  X         5.3625686378        9.4165402008        0.8496023923  MOL0
  X         6.7989824590        9.4328901225        0.8496023923  MOL0
  X         3.2344839656       10.6290369594        0.8496023923  MOL0
  X         4.6596611404       10.6259924164        0.8496023923  MOL0
  X         5.3633710068       11.8656541038        0.8496023923  MOL0
  X         6.7636975075       11.8514799810        0.8496023923  MOL0
  X         3.2217659951       13.0773034503        0.8496023923  MOL0
  X         4.6568355121       13.0881126679        0.8496023923  MOL0
  X         5.3376961724       14.3452689091        0.8496023923  MOL0
  X         6.7574589049       14.3113988992        0.8496023923  MOL0
  X         3.2187773615       15.5345660387        0.8496023923  MOL0
  X         4.6202895503       15.5527520068        0.8496023923  MOL0
  X         5.3241605895       16.7792501337        0.8496023923  MOL0
  X         6.7738290349       16.7608426416        0.8496023923  MOL0
  X         3.2110291219       17.9883989422        0.8496023923  MOL0
  X         4.6375055121       17.9908631689        0.8496023923  MOL0
  X         5.3877095016       19.2014302598        0.8496023923  MOL0
  X         6.8060307498       19.2466719901        0.8496023923  MOL0
  X         3.2280164470       20.4265296505        0.8496023923  MOL0
  X         4.6636274019       20.4311754315        0.8496023923  MOL0
  X         5.3721747629       21.6840561882        0.8496023923  MOL0
  X         6.7718941620       21.7033457495        0.8496023923  MOL0
  X         3.2550178569       22.9129814349        0.8496023923  MOL0
  X         4.7019479292       22.9166430877        0.8496023923  MOL0
  X         5.3935745366       24.1614079754        0.8496023923  MOL0
  X         6.8437879008       24.1534785380        0.8496023923  MOL0
  X         3.2641405669       25.3695371051        0.8496023923  MOL0
  X         4.6731943992       25.3939081601        0.8496023923  MOL0
  X         5.3862154167       26.6233368898        0.8496023923  MOL0
  X         6.7952975086       26.6128064520        0.8496023923  MOL0
  X         3.2720332382       27.8454732257        0.8496023923  MOL0
  X         4.6949156411       27.8636738305        0.8496023923  MOL0
  X         5.3890117429       29.0914288915        0.8496023923  MOL0
  X         6.7907559285       29.0753779587        0.8496023923  MOL0
  X         3.2314699635       30.2884356668        0.8496023923  MOL0
  X         4.6280858267       30.3152742185        0.8496023923  MOL0
  X         5.3436040865       31.5562135937        0.8496023923  MOL0
  X         6.7627743135       31.5282633942        0.8496023923  MOL0
  X         3.2208200656       32.7638247022        0.8496023923  MOL0
  X         4.6297148742       32.7942802134        0.8496023923  MOL0
  X         5.3992524369       33.9846402070        0.8496023923  MOL0
  X         6.8187282502       33.9736754596        0.8496023923  MOL0
  X         7.5517889924        0.7798059839        0.8496023923  MOL0
  X         8.9607957545        0.7715889654        0.8496023923  MOL0
  X         9.6385889978        1.9993095274        0.8496023923  MOL0
  X        11.0579762161        2.0127305390        0.8496023923  MOL0
  X         7.5287417919        3.2623369063        0.8496023923  MOL0
  X         8.9454302699        3.2334021875        0.8496023923  MOL0
  X         9.6557142973        4.4525959678        0.8496023923  MOL0
  X        11.0872318006        4.4565309999        0.8496023923  MOL0
  X         7.4888459220        5.7119135217        0.8496023923  MOL0
  X         8.9501249183        5.6884342286        0.8496023923  MOL0
  X         9.6332951014        6.9384560028        0.8496023923  MOL0
  X        11.0568774921        6.9493369749        0.8496023923  MOL0
  X         7.4515311781        8.1611379272        0.8496023923  MOL0
  X         8.9015179662        8.1533214958        0.8496023923  MOL0
  X         9.6354849808        9.3805351417        0.8496023923  MOL0
  X        11.0681260697        9.3995302105        0.8496023923  MOL0
  X         7.5110647290       10.6349186762        0.8496023923  MOL0
  X         8.9430548207       10.6607022344        0.8496023923  MOL0
  X         9.6194730757       11.8889130085        0.8496023923  MOL0
  X        11.0010179828       11.8385168359        0.8496023923  MOL0
  X         7.4594980668       13.0872796958        0.8496023923  MOL0
  X         8.9032758168       13.0922790926        0.8496023923  MOL0
  X         9.6434635400       14.3240728262        0.8496023923  MOL0
  X        11.0430988347       14.2908195339        0.8496023923  MOL0
  X         7.4947861171       15.5318883855        0.8496023923  MOL0
  X         8.9096917695       15.5058789274        0.8496023923  MOL0
  X         9.6092272358       16.7506122821        0.8496023923  MOL0
  X        10.9996326729       16.7620322001        0.8496023923  MOL0
  X         7.5048889586       17.9863997644        0.8496023923  MOL0
  X         8.9218572126       17.9896361166        0.8496023923  MOL0
  X         9.6813134758       19.2128546203        0.8496023923  MOL0
  X        11.0726766238       19.2156338273        0.8496023923  MOL0
  X         7.5113770671       20.4727914813        0.8496023923  MOL0
  X         8.9578956363       20.4321676248        0.8496023923  MOL0
  X         9.6172798408       21.6778956788        0.8496023923  MOL0
  X        11.0675785243       21.6685060604        0.8496023923  MOL0
  X         7.4870854822       22.9090812757        0.8496023923  MOL0
  X         8.9157057471       22.9104489496        0.8496023923  MOL0
  X         9.6383700536       24.1097801284        0.8496023923  MOL0
  X        11.0616886721       24.1492976495        0.8496023923  MOL0
  X         7.5400835863       25.3853859633        0.8496023923  MOL0
  X         8.9453823216       25.3650913724        0.8496023923  MOL0
  X         9.6222480570       26.6296667434        0.8496023923  MOL0
  X        11.0257283218       26.6024599367        0.8496023923  MOL0
  X         7.5162498591       27.8623864481        0.8496023923  MOL0
  X         8.9322492543       27.8423845560        0.8496023923  MOL0
  X         9.5998696792       29.0603174190        0.8496023923  MOL0
  X        11.0199482522       29.0662860622        0.8496023923  MOL0
  X         7.5019054856       30.2901981163        0.8496023923  MOL0
  X         8.8944715307       30.2971108238        0.8496023923  MOL0
  X         9.5786762152       31.5072619830        0.8496023923  MOL0
  X        10.9976901736       31.4925331806        0.8496023923  MOL0
  X         7.4779380284       32.7674382385        0.8496023923  MOL0
  X         8.8831369393       32.7610453866        0.8496023923  MOL0
  X         9.6210217267       33.9537997376        0.8496023923  MOL0
  X        11.0602579727       33.9390238865        0.8496023923  MOL0
  X        11.7406208939        0.7826718843        0.8496023923  MOL0
  X        13.1770930946        0.7976213899        0.8496023923  MOL0
  X        13.9195983790        2.0246807854        0.8496023923  MOL0
  X        15.3366468856        2.0237002915        0.8496023923  MOL0
  X        11.7652934359        3.2299542034        0.8496023923  MOL0
  X        13.1832182962        3.2363276653        0.8496023923  MOL0
  X        13.9110942801        4.4824456103        0.8496023923  MOL0
  X        15.3309840119        4.4519917052        0.8496023923  MOL0
  X        11.7544384102        5.7405052375        0.8496023923  MOL0
  X        13.1813240151        5.7233995919        0.8496023923  MOL0
  X        13.9055266857        6.9001755469        0.8496023923  MOL0
  X        15.3295033670        6.9082826605        0.8496023923  MOL0
  X        11.7963757474        8.1544424707        0.8496023923  MOL0
  X        13.2178176127        8.1440245323        0.8496023923  MOL0
  X        13.8809836833        9.3752644900        0.8496023923  MOL0
  X        15.3158910155        9.3871277669        0.8496023923  MOL0
  X        11.7494567959       10.6466728104        0.8496023923  MOL0
  X        13.1573792585       10.6224683096        0.8496023923  MOL0
  X        13.8852886425       11.8350355757        0.8496023923  MOL0
  X        15.2805155136       11.8469092202        0.8496023923  MOL0
  X        11.7279452084       13.0574213065        0.8496023923  MOL0
  X        13.1181629421       13.0881315483        0.8496023923  MOL0
  X        13.8366110577       14.2927722598        0.8496023923  MOL0
  X        15.2464614745       14.3042445497        0.8496023923  MOL0
  X        11.7129683693       15.5132808264        0.8496023923  MOL0
  X        13.1087685575       15.5420896013        0.8496023923  MOL0
  X        13.8720989922       16.7918562413        0.8496023923  MOL0
  X        15.2808965594       16.7804329556        0.8496023923  MOL0
  X        11.7296374718       17.9978116712        0.8496023923  MOL0
  X        13.1642813933       17.9984518270        0.8496023923  MOL0
  X        13.8878634185       19.2127406572        0.8496023923  MOL0
  X        15.3319214004       19.2358259161        0.8496023923  MOL0
  X        11.7785455212       20.4878791736        0.8496023923  MOL0
  X        13.1892206588       20.4378549402        0.8496023923  MOL0
  X        13.9307651354       21.6348268318        0.8496023923  MOL0
  X        15.3141828723       21.6375687743        0.8496023923  MOL0
  X        11.7740673994       22.9122553198        0.8496023923  MOL0
  X        13.1983942752       22.9137637083        0.8496023923  MOL0
  X        13.8870933614       24.1374598545        0.8496023923  MOL0
  X        15.3302455155       24.1043897085        0.8496023923  MOL0
  X        11.7110927742       25.3946500288        0.8496023923  MOL0
  X        13.1630667227       25.3756350181        0.8496023923  MOL0
  X        13.8830486962       26.5712703847        0.8496023923  MOL0
  X        15.2805383846       26.5588966419        0.8496023923  MOL0
  X        11.7630041840       27.8324129906        0.8496023923  MOL0
  X        13.1846446453       27.8108086353        0.8496023923  MOL0
  X        13.8604953191       29.0512984373        0.8496023923  MOL0
  X        15.3134837418       29.0598900119        0.8496023923  MOL0
  X        11.7112806615       30.2862081099        0.8496023923  MOL0
  X        13.1519373621       30.2531510166        0.8496023923  MOL0
  X        13.8474918394       31.4726044116        0.8496023923  MOL0
  X        15.2551233548       31.4843771454        0.8496023923  MOL0
  X        11.7237230069       32.7235654832        0.8496023923  MOL0
  X        13.1554641947       32.7509254405        0.8496023923  MOL0
  X        13.8717669279       33.9835839576        0.8496023923  MOL0
  X        15.2611498756       33.9900071011        0.8496023923  MOL0
  X        15.9983990882        0.8013679563        0.8496023923  MOL0
  X        17.4012006373        0.8008879194        0.8496023923  MOL0
  X        18.1472261557        2.0067890302        0.8496023923  MOL0
  X        19.5852162730        2.0078832570        0.8496023923  MOL0
  X        16.0750692616        3.2359227312        0.8496023923  MOL0
  X        17.4730998685        3.2331932026        0.8496023923  MOL0
  X        18.1639902828        4.4942608284        0.8496023923  MOL0
  X        19.5863404574        4.5001079723        0.8496023923  MOL0
  X        16.0434757807        5.6914599432        0.8496023923  MOL0
  X        17.4622475633        5.6996780306        0.8496023923  MOL0
  X        18.1625046536        6.9579101242        0.8496023923  MOL0
  X        19.5511888808        6.9370965621        0.8496023923  MOL0
  X        16.0044913691        8.1624399324        0.8496023923  MOL0
  X        17.4302666957        8.1709119409        0.8496023923  MOL0
  X        18.1280539795        9.4033165395        0.8496023923  MOL0
  X        19.5721988726        9.3974855992        0.8496023923  MOL0
  X        16.0159886122       10.6397592422        0.8496023923  MOL0
  X        17.4320736690       10.6401929122        0.8496023923  MOL0
  X        18.1130835962       11.8649361142        0.8496023923  MOL0
  X        19.5502477962       11.8785807354        0.8496023923  MOL0
  X        15.9839234224       13.0845098576        0.8496023923  MOL0
  X        17.3930688945       13.0887457602        0.8496023923  MOL0
  X        18.1211461129       14.2862342721        0.8496023923  MOL0
  X        19.5394788893       14.3076746913        0.8496023923  MOL0
  X        15.9595208062       15.5227476862        0.8496023923  MOL0
  X        17.3983378882       15.5202036388        0.8496023923  MOL0
  X        18.1105025606       16.7727789719        0.8496023923  MOL0
  X        19.5261986808       16.7471779477        0.8496023923  MOL0
  X        16.0179764361       18.0039169491        0.8496023923  MOL0
  X        17.4344207649       18.0063146292        0.8496023923  MOL0
  X        18.1652475723       19.2220644046        0.8496023923  MOL0
  X        19.6025234338       19.2441620586        0.8496023923  MOL0
  X        16.0159426766       20.4221880607        0.8496023923  MOL0
  X        17.4557422543       20.4428611440        0.8496023923  MOL0
  X        18.1529401935       21.7010801069        0.8496023923  MOL0
  X        19.5811469510       21.7016042594        0.8496023923  MOL0
  X        16.0350269062       22.9054656054        0.8496023923  MOL0
  X        17.4826370617       22.9155295892        0.8496023923  MOL0
  X        18.1600501564       24.1635818602        0.8496023923  MOL0
  X        19.5495200851       24.2035748532        0.8496023923  MOL0
  X        16.0120749868       25.3406854962        0.8496023923  MOL0
  X        17.4261030871       25.3528436705        0.8496023923  MOL0
  X        18.1394747074       26.6071803808        0.8496023923  MOL0
  X        19.5447236597       26.6206044715        0.8496023923  MOL0
  X        16.0142266076       27.7887487176        0.8496023923  MOL0
  X        17.4524305807       27.8475325585        0.8496023923  MOL0
  X        18.1566933958       29.0626717786        0.8496023923  MOL0
  X        19.5699378956       29.0769800424        0.8496023923  MOL0
  X        15.9993388665       30.2829490523        0.8496023923  MOL0
  X        17.4087048583       30.2472340996        0.8496023923  MOL0
  X        18.1114091873       31.5073503970        0.8496023923  MOL0
  X        19.5243753461       31.5160905766        0.8496023923  MOL0
  X        15.9548893612       32.7355480373        0.8496023923  MOL0
  X        17.3910100108       32.7476349086        0.8496023923  MOL0
  X        18.0980303551       33.9798974767        0.8496023923  MOL0
  X        19.5234393360       33.9833659618        0.8496023923  MOL0
  X        20.2235086422        0.7821592113        0.8496023923  MOL0
  X        21.6759395265        0.7640038479        0.8496023923  MOL0
  X        22.4191011451        2.0150293113        0.8496023923  MOL0
  X        23.8425581795        2.0312668725        0.8496023923  MOL0
  X        20.2840150699        3.2542524028        0.8496023923  MOL0
  X        21.7141236319        3.2444350922        0.8496023923  MOL0
  X        22.4303557058        4.4757587282        0.8496023923  MOL0
  X        23.8511596162        4.4736064527        0.8496023923  MOL0
  X        20.3376464913        5.7030205869        0.8496023923  MOL0
  X        21.7232474909        5.6894643840        0.8496023923  MOL0
  X        22.3971340502        6.9222367327        0.8496023923  MOL0
  X        23.8581520203        6.9299796461        0.8496023923  MOL0
  X        20.2846157700        8.1672057630        0.8496023923  MOL0
  X        21.6887222380        8.1503326557        0.8496023923  MOL0
  X        22.3772920430        9.4121983841        0.8496023923  MOL0
  X        23.7739780123        9.3845695321        0.8496023923  MOL0
  X        20.2778258211       10.6466067950        0.8496023923  MOL0
  X        21.6863597541       10.6141389606        0.8496023923  MOL0
  X        22.4063733984       11.8498459351        0.8496023923  MOL0
  X        23.8414570719       11.8104423156        0.8496023923  MOL0
  X        20.2782109892       13.0586523482        0.8496023923  MOL0
  X        21.6916486840       13.0894550795        0.8496023923  MOL0
  X        22.3952024160       14.3133738623        0.8496023923  MOL0
  X        23.8229292139       14.2896092744        0.8496023923  MOL0
  X        20.2714419147       15.5379170723        0.8496023923  MOL0
  X        21.6812621682       15.5582734303        0.8496023923  MOL0
  X        22.4194401323       16.7612660957        0.8496023923  MOL0
  X        23.8373292347       16.7396845642        0.8496023923  MOL0
  X        20.2939444889       17.9879515359        0.8496023923  MOL0
  X        21.7295951850       17.9995526490        0.8496023923  MOL0
  X        22.4080654059       19.2474944190        0.8496023923  MOL0
  X        23.8274638830       19.2475625769        0.8496023923  MOL0
  X        20.3180352501       20.4894436996        0.8496023923  MOL0
  X        21.7328198704       20.5011274167        0.8496023923  MOL0
  X        22.4278041359       21.7098331450        0.8496023923  MOL0
  X        23.8572383595       21.7182784649        0.8496023923  MOL0
  X        20.2709127020       22.9666942151        0.8496023923  MOL0
  X        21.6750024667       22.9180633601        0.8496023923  MOL0
  X        22.3869201712       24.1564874338        0.8496023923  MOL0
  X        23.8141260289       24.1536245023        0.8496023923  MOL0
  X        20.2635052955       25.4031977029        0.8496023923  MOL0
  X        21.6874024761       25.3867459905        0.8496023923  MOL0
  X        22.4029994591       26.6228760350        0.8496023923  MOL0
  X        23.8118350712       26.6006386689        0.8496023923  MOL0
  X        20.2866056415       27.8296447265        0.8496023923  MOL0
  X        21.6962952151       27.8546270407        0.8496023923  MOL0
  X        22.4143811517       29.0933948778        0.8496023923  MOL0
  X        23.8166270871       29.0702679044        0.8496023923  MOL0
  X        20.2434875354       30.3084001703        0.8496023923  MOL0
  X        21.6779840083       30.3379634501        0.8496023923  MOL0
  X        22.4205285521       31.5178002898        0.8496023923  MOL0
  X        23.8319773361       31.5254164080        0.8496023923  MOL0
  X        20.2449844472       32.7223055948        0.8496023923  MOL0
  X        21.6564145936       32.7619946289        0.8496023923  MOL0
  X        22.3895855049       33.9746187541        0.8496023923  MOL0
  X        23.8185298285       33.9908480143        0.8496023923  MOL0
  X        24.5318964284        0.7639404924        0.8496023923  MOL0
  X        25.9380881234        0.8065879329        0.8496023923  MOL0
  X        26.6852161809        2.0369952004        0.8496023923  MOL0
  X        28.1262838180        2.0121429319        0.8496023923  MOL0
  X        24.5689206350        3.2510191016        0.8496023923  MOL0
  X        25.9693818172        3.2781476186        0.8496023923  MOL0
  X        26.6490871666        4.5101327058        0.8496023923  MOL0
  X        28.0636679089        4.4926280468        0.8496023923  MOL0
  X        24.5533759197        5.7002701040        0.8496023923  MOL0
  X        25.9561033445        5.7348736268        0.8496023923  MOL0
  X        26.6608811344        6.9225528126        0.8496023923  MOL0
  X        28.0850390912        6.9128678024        0.8496023923  MOL0
  X        24.5233995467        8.1651466479        0.8496023923  MOL0
  X        25.9689004602        8.1408213257        0.8496023923  MOL0
  X        26.6683078239        9.4024162910        0.8496023923  MOL0
  X        28.0920628706        9.3689174493        0.8496023923  MOL0
  X        24.5469506494       10.5913975029        0.8496023923  MOL0
  X        25.9321589998       10.5757014237        0.8496023923  MOL0
  X        26.6543049827       11.8229806587        0.8496023923  MOL0
  X        28.0925307914       11.8254326330        0.8496023923  MOL0
  X        24.5390918254       13.0612687343        0.8496023923  MOL0
  X        25.9618404303       13.0518775406        0.8496023923  MOL0
  X        26.6962721727       14.2930583593        0.8496023923  MOL0
  X        28.0991124330       14.2712506353        0.8496023923  MOL0
  X        24.5445343112       15.5338889197        0.8496023923  MOL0
  X        25.9983791601       15.5239062039        0.8496023923  MOL0
  X        26.7041039839       16.7552166233        0.8496023923  MOL0
  X        28.1367564045       16.7423929605        0.8496023923  MOL0
  X        24.5437906234       17.9640348185        0.8496023923  MOL0
  X        25.9796708507       17.9659202357        0.8496023923  MOL0
  X        26.6752030552       19.1991060102        0.8496023923  MOL0
  X        28.1186585783       19.2330398752        0.8496023923  MOL0
  X        24.5411882595       20.4675277302        0.8496023923  MOL0
  X        25.9766535927       20.4681813387        0.8496023923  MOL0
  X        26.6889255194       21.6945855174        0.8496023923  MOL0
  X        28.1222654382       21.6834374597        0.8496023923  MOL0
  X        24.5087021091       22.9369924890        0.8496023923  MOL0
  X        25.9666277177       22.9067751379        0.8496023923  MOL0
  X        26.6893843301       24.1279094490        0.8496023923  MOL0
  X        28.1095182994       24.1307613682        0.8496023923  MOL0
  X        24.5316310717       25.3747205752        0.8496023923  MOL0
  X        25.9361922896       25.3576601178        0.8496023923  MOL0
  X        26.6473422402       26.5939731640        0.8496023923  MOL0
  X        28.0880659133       26.5812403969        0.8496023923  MOL0
  X        24.5250761581       27.8424315336        0.8496023923  MOL0
  X        25.9490198409       27.8451734887        0.8496023923  MOL0
  X        26.6388892479       29.0629027674        0.8496023923  MOL0
  X        28.0966117093       29.0897058442        0.8496023923  MOL0
  X        24.5285382342       30.3108418214        0.8496023923  MOL0
  X        25.9245566726       30.2990068606        0.8496023923  MOL0
  X        26.6498433276       31.5454639326        0.8496023923  MOL0
  X        28.1106326224       31.5333920063        0.8496023923  MOL0
  X        24.5231762483       32.7441416755        0.8496023923  MOL0
  X        25.9276797696       32.7669476495        0.8496023923  MOL0
  X        26.6731003343       33.9984637350        0.8496023923  MOL0
  X        28.0964014219       33.9897778557        0.8496023923  MOL0
  X        28.8235990138        0.8027491130        0.8496023923  MOL0
  X        30.2311314856        0.8004756433        0.8496023923  MOL0
  X        30.9139459301        2.0046241921        0.8496023923  MOL0
  X        32.3230954037        2.0185328293        0.8496023923  MOL0
  X        28.7995548687        3.2521351713        0.8496023923  MOL0
  X        30.2024847506        3.2437152808        0.8496023923  MOL0
  X        30.9231796562        4.4833420073        0.8496023923  MOL0
  X        32.3302042261        4.5051003258        0.8496023923  MOL0
  X        28.7627529105        5.7033742636        0.8496023923  MOL0
  X        30.1804129964        5.6995297587        0.8496023923  MOL0
  X        30.9066858008        6.9077986630        0.8496023923  MOL0
  X        32.3168404581        6.9217367172        0.8496023923  MOL0
  X        28.7830512251        8.1514382775        0.8496023923  MOL0
  X        30.1946033652        8.1765710402        0.8496023923  MOL0
  X        30.9168557785        9.3779968005        0.8496023923  MOL0
  X        32.3510099782        9.4270663288        0.8496023923  MOL0
  X        28.7961278385       10.5937264864        0.8496023923  MOL0
  X        30.2276465116       10.6153472352        0.8496023923  MOL0
  X        30.9195342460       11.8344656403        0.8496023923  MOL0
  X        32.3083915537       11.8681381098        0.8496023923  MOL0
  X        28.7797689800       13.0445898422        0.8496023923  MOL0
  X        30.2012152154       13.0425125568        0.8496023923  MOL0
  X        30.9401381218       14.2990279222        0.8496023923  MOL0
  X        32.3696172347       14.2915534155        0.8496023923  MOL0
  X        28.8001070858       15.4860323352        0.8496023923  MOL0
  X        30.2253914760       15.5346939949        0.8496023923  MOL0
  X        30.9520407647       16.7325330912        0.8496023923  MOL0
  X        32.3575649360       16.7361555213        0.8496023923  MOL0
  X        28.8651169331       18.0088225304        0.8496023923  MOL0